LIGGGHTS (Version LIGGGHTS-PUBLIC 3.8.0, compiled 2018-11-10-12:29:58 by balazs, git commit 28301df8853491784b1d8b90533ea89b8c6af1e8)
